      -----------------------------------------------------------      
     |                   =====================                   |     
     |                           x T B                           |     
     |                   =====================                   |     
     |                         S. Grimme                         |     
     |          Mulliken Center for Theoretical Chemistry        |     
     |                    University of Bonn                     |     
     |                 Version 6.0.1 (SAW181210)                 |     
      -----------------------------------------------------------      

   This program is distributed in the hope that it will be useful,
   but WITHOUT ANY WARRANTY; without even the implied warranty of
   MERCHANTABILITY or FITNESS FOR A PARTICULAR PURPOSE.
   
   FOR NON-COMMERCIAL, ACADEMIA USE ONLY.
   
   Cite this work as:
   S. Grimme, C. Bannwarth, P. Shushkov, J. Comput. Theory Chem., 2017,
   13, 1989-2009.
   C. Bannwarth, S. Ehlert and S. Grimme., ChemRxiv, 2018, preprint.
   http://doi.org/10.26434/chemrxiv.7246238.v1
   
   for sTDA-xTB:
   S. Grimme and C. Bannwarth, J. Chem. Phys., 2016, 145, 054103.
   
   in the mass-spec context:
   V. Asgeirsson, C. Bauer and S. Grimme, Chem. Sci., 2017, 8, 4879.
   
   if GBSA is used:
   P. Shushkov, F. März and S. Grimme, unpublished.
   
   for ANC optimizer:
   S. Grimme, unpublished.
   Rational Function algorithm used in ANCopt:
   F. Eckert, P. Pulay, H.-J. Werner, J. Comput. Chem., 1997, 18, 1473.
   
   with help from (in alphabetical order)
   C. Bannwarth, F. Bohle, G. Brandenburg, E. Caldeweyher, M. Checinski,
   S. Dohm, S. Ehlert, S. Ehrlich, F. März, H. Neugebauer, J. Pisarek,
   P. Pracht, P. Shushkov, and S. Spicher.
   
 * started run on 2019/02/13 at 00:18:50.820     
========================================================================
 # omp threads = 16
========================================================================
number of atoms            : 188
number of electrons        : 522
charge                     : -2
spin                       : .0
first test random number   : .5852

########################################################################
# WARNING! Please study the warnings concerning your input carefully
#  - Process number higher than OMP_NUM_THREADS, I hope you know what you are doing.
########################################################################

           ------------------------------------------------- 
          |                 G F N 2 - x T B                 |
          | Geometry, Frequencies, Noncovalent interactions |
          |            JCTC 2018 parametrisation            |
           ------------------------------------------------- 
 
      method parameters     
 k(s)        :  1.8500
 k(p)        :  2.2300
 k(d)        :  2.2300
 k(f)        :  2.0000
 kEN (H0ij)  : -2.0000
 D4 a1       :  0.5200
 D4 a2       :  5.0000
 D4 s6       :  1.0000
 D4 s8       :  2.7000
 D4 s9       :  5.0000
 alphaj      :  2.0000

 Solvent             : h2o
 Using internal parameter file: .param_gbsa2_h2o
 Gsolv ref. state (COSMO-RS): gsolv [1 M gas/solution]
 temperature (mdtemp)       :    298.150000000000     
 dielectric constant        :    80.2000000000000     
 rho                        :    1.00000000000000     
 mass                       :    18.0000000000000     
 surface tension            :    15.5689454083859     
 probe radius               :   0.975313790000000     
 vdW radii scaling          :    1.00000000000000     
 Gshift (Eh)                :   1.857443126794793E-003
 c1                         :    1.55243817000000     
 soset                      :   0.130326360000000     
 HB correction              :  T

            Z     q(EN)     CN     RAES       Cart. coordinates
     1  N   5.0   -0.21    3.24    1.96   384.10618   123.49772   226.96979
     2  C   4.0    0.02    4.40    4.38   386.54370   122.25071   227.25516
     3  C   4.0    0.15    3.41    3.08   388.43240   124.18975   228.27959
     4  O   6.0   -0.31    1.26    1.80   388.58845   126.30936   227.35125
     5  C   4.0   -0.02    4.33    4.26   387.43278   121.12779   224.72938
     6  C   4.0   -0.06    4.19    3.98   385.48532   119.26630   223.65284
     7  C   4.0   -0.07    4.13    3.85   389.98712   119.82797   225.07828
     8  C   4.0   -0.08    4.01    3.64   385.78276   118.93429   220.80564
     9  H   1.0    0.08    1.02    1.43   383.56749   123.95840   225.18683
    10  H   1.0    0.03    1.05    1.44   386.30342   120.74828   228.66087
    11  H   1.0    0.04    1.06    1.44   387.63362   122.70962   223.41697
    12  H   1.0    0.03    1.03    1.43   385.71119   117.44853   224.59856
    13  H   1.0    0.03    1.03    1.43   383.58269   119.95575   224.04042
    14  H   1.0    0.05    1.00    1.43   390.61791   119.00993   223.30578
    15  H   1.0    0.06    1.00    1.43   391.43395   121.12827   225.73901
    16  H   1.0    0.05    1.00    1.43   389.83860   118.30347   226.45011
    17  H   1.0    0.03    1.00    1.43   384.35813   117.63475   220.10240
    18  H   1.0    0.03    1.00    1.43   385.53924   120.74732   219.87227
    19  H   1.0    0.05    1.00    1.43   387.63274   118.17830   220.33753
    20  N   5.0   -0.14    3.47    2.06   389.77869   123.44995   230.28275
    21  C   4.0    0.03    4.22    4.04   391.64133   124.99828   231.55431
    22  C   4.0    0.07    3.19    3.03   394.25648   124.57381   230.35213
    23  O   6.0   -0.30    1.15    1.80   394.57272   123.03482   228.66281
    24  C   4.0   -0.09    4.09    3.79   391.65561   124.34000   234.36286
    25  H   1.0    0.07    1.07    1.44   389.73271   121.61758   230.80729
    26  H   1.0    0.04    1.05    1.44   391.11440   126.98292   231.27502
    27  H   1.0    0.02    1.00    1.43   392.84661   125.64299   235.40661
    28  H   1.0    0.03    1.00    1.43   389.74026   124.45966   235.09307
    29  H   1.0    0.04    1.00    1.43   392.37240   122.43205   234.63588
    30  N   5.0   -0.21    3.22    1.96   401.87153   123.16409   232.33625
    31  C   4.0    0.04    4.26    4.13   403.74691   122.39381   234.16214
    32  C   4.0    0.09    3.32    3.06   406.33010   123.26487   233.21160
    33  O   6.0   -0.29    1.13    1.80   407.33826   122.36311   231.33850
    34  C   4.0   -0.03    4.26    4.12   403.91836   119.54810   234.60807
    35  C   4.0    0.25    3.18    3.03   406.41240   119.04788   236.07838
    36  O   6.0   -0.32    1.22    1.80   406.99774   120.69708   237.69236
    37  O   6.0   -0.30    1.16    1.80   407.68754   117.15775   235.56287
    38  H   1.0    0.13    1.07    1.44   401.96507   122.39062   230.58308
    39  H   1.0    0.04    1.05    1.44   403.27882   123.34242   235.94058
    40  H   1.0    0.04    1.02    1.43   402.31463   118.86355   235.70679
    41  H   1.0    0.06    1.02    1.43   403.98222   118.50398   232.82974
    42  N   5.0   -0.22    3.25    1.97   405.85697   134.89089   210.33383
    43  C   4.0    0.02    4.23    4.06   406.08784   136.11089   212.75460
    44  C   4.0    0.05    3.23    3.04   408.72224   137.25504   213.00605
    45  O   6.0   -0.32    1.13    1.80   410.57988   136.25224   212.05292
    46  C   4.0   -0.04    4.34    4.27   405.82432   134.18577   214.92993
    47  C   4.0   -0.03    3.55    3.14   403.31798   132.86374   214.98187
    48  C   4.0   -0.06    3.49    3.11   402.82369   130.91155   213.29552
    49  C   4.0   -0.06    3.46    3.10   401.48981   133.48993   216.75544
    50  C   4.0   -0.05    3.43    3.09   400.57419   129.59768   213.37381
    51  C   4.0   -0.06    3.43    3.09   399.24434   132.15401   216.88534
    52  C   4.0    0.06    3.45    3.10   398.78788   130.19660   215.20094
    53  O   6.0   -0.28    2.15    1.85   396.61100   128.80207   215.31349
    54  H   1.0    0.08    1.03    1.43   407.26250   133.66374   209.92247
    55  H   1.0    0.02    1.05    1.44   404.63774   137.57904   212.86543
    56  H   1.0    0.04    1.04    1.43   407.31690   132.78681   214.65730
    57  H   1.0    0.03    1.03    1.43   406.14419   135.17768   216.70889
    58  H   1.0    0.04    1.03    1.43   404.24529   130.39808   211.93153
    59  H   1.0    0.03    1.03    1.43   401.82208   135.00753   218.08011
    60  H   1.0    0.04    1.03    1.43   400.22032   128.11318   212.03286
    61  H   1.0    0.04    1.03    1.43   397.85953   132.63224   218.31266
    62  H   1.0    0.11    1.04    1.43   395.60712   129.38611   216.71981
    63  N   5.0   -0.21    3.24    1.96   406.26044   122.77217   215.47095
    64  C   4.0    0.03    4.41    4.40   404.57140   121.84884   217.41765
    65  C   4.0    0.15    3.44    3.09   403.57991   119.23600   216.68314
    66  O   6.0   -0.32    1.23    1.80   402.80948   118.78870   214.54989
    67  C   4.0   -0.02    4.26    4.13   402.35085   123.71883   217.76644
    68  C   4.0   -0.07    4.12    3.85   400.52035   122.75440   219.77386
    69  C   4.0   -0.08    4.13    3.86   403.36301   126.30871   218.53434
    70  H   1.0    0.08    1.03    1.43   405.60429   122.65928   213.68232
    71  H   1.0    0.06    1.07    1.44   405.63428   121.71791   219.17832
    72  H   1.0    0.04    1.05    1.44   401.37355   123.87806   215.95096
    73  H   1.0    0.04    1.00    1.43   399.02561   124.12465   220.09542
    74  H   1.0    0.06    1.00    1.43   399.68063   120.95613   219.24781
    75  H   1.0    0.06    1.00    1.43   401.50614   122.46737   221.55781
    76  H   1.0    0.04    1.00    1.43   401.81510   127.61776   218.85014
    77  H   1.0    0.04    1.00    1.43   404.42973   126.14032   220.28303
    78  H   1.0    0.04    1.00    1.43   404.59754   127.10212   217.09820
    79  N   5.0   -0.14    3.49    2.07   403.66208   117.52386   218.54756
    80  C   4.0    0.04    4.43    4.42   402.37302   115.10963   218.39202
    81  C   4.0    0.17    3.54    3.13   399.56399   115.73173   218.71873
    82  O   6.0   -0.31    1.31    1.80   398.70214   116.57968   220.69892
    83  C   4.0   -0.02    4.27    4.13   403.31787   113.33280   220.43473
    84  C   4.0    0.26    3.13    3.03   401.72778   110.87544   220.55484
    85  O   6.0   -0.30    1.16    1.80   402.81675   108.85830   221.00670
    86  O   6.0   -0.32    1.35    1.80   399.40034   111.13911   220.16174
    87  H   1.0    0.11    1.11    1.44   404.15298   118.10231   220.30173
    88  H   1.0    0.05    1.05    1.44   402.71457   114.30415   216.51419
    89  H   1.0    0.05    1.02    1.43   405.30635   112.85084   220.18018
    90  H   1.0    0.07    1.03    1.43   403.08596   114.22367   222.28411
    91  N   5.0   -0.14    3.48    2.06   398.19544   115.71053   216.58784
    92  C   4.0    0.03    4.42    4.41   395.61761   116.63597   216.53494
    93  C   4.0    0.15    3.42    3.08   393.80187   115.05701   218.15977
    94  O   6.0   -0.31    1.22    1.80   391.73431   115.91220   218.74285
    95  C   4.0   -0.05    4.25    4.10   394.60926   116.78287   213.81245
    96  C   4.0   -0.06    4.16    3.93   394.48650   119.46673   212.74378
    97  C   4.0   -0.05    4.16    3.93   397.05459   120.80620   212.67897
    98  C   4.0   -0.05    4.11    3.83   397.11485   122.95799   210.76317
    99  N   5.0   -0.13    4.02    2.91   395.38249   125.05937   211.49479
   100  H   1.0    0.08    1.06    1.44   398.94194   114.98659   214.99173
   101  H   1.0    0.05    1.06    1.44   395.61188   118.51120   217.42240
   102  H   1.0    0.03    1.03    1.43   395.79464   115.59156   212.61904
   103  H   1.0    0.04    1.04    1.43   392.70846   115.98245   213.79325
   104  H   1.0    0.02    1.03    1.43   393.74721   119.29883   210.82670
   105  H   1.0    0.03    1.03    1.43   393.13810   120.52037   213.89237
   106  H   1.0    0.04    1.02    1.43   397.55058   121.49826   214.55517
   107  H   1.0    0.05    1.03    1.43   398.52749   119.46038   212.16343
   108  H   1.0    0.03    1.02    1.43   399.03474   123.68835   210.62172
   109  H   1.0    0.02    1.02    1.43   396.53638   122.24326   208.91896
   110  H   1.0    0.04    1.02    1.43   395.23198   126.35273   210.04669
   111  H   1.0    0.04    1.02    1.43   393.61609   124.33765   211.88438
   112  H   1.0    0.07    1.04    1.43   396.02710   126.02103   213.08860
   113  N   5.0   -0.13    3.53    2.10   394.56970   112.71178   218.69194
   114  C   4.0    0.04    4.48    4.51   393.08017   110.98146   220.17888
   115  C   4.0    0.15    3.43    3.09   393.21745   111.51859   223.01364
   116  O   6.0   -0.32    1.23    1.80   391.30649   111.60110   224.31011
   117  C   4.0    0.05    4.25    4.10   393.97596   108.27174   219.61728
   118  O   6.0   -0.27    2.13    1.84   393.74053   107.93843   216.97902
   119  C   4.0   -0.08    4.07    3.75   392.42525   106.30932   221.05604
   120  H   1.0    0.11    1.12    1.45   396.41828   112.24887   218.52433
   121  H   1.0    0.06    1.06    1.44   391.09848   111.19599   219.60955
   122  H   1.0    0.05    1.04    1.43   395.98321   108.14688   220.16649
   123  H   1.0    0.10    1.03    1.43   394.35549   106.27280   216.56032
   124  H   1.0    0.03    1.00    1.43   393.20481   104.43394   220.74341
   125  H   1.0    0.04    1.00    1.43   392.46222   106.71874   223.06599
   126  H   1.0    0.03    1.00    1.43   390.47877   106.35834   220.40156
   127  N   5.0   -0.14    3.49    2.07   395.55323   111.83572   223.96364
   128  C   4.0    0.04    4.45    4.46   395.90816   112.06737   226.65894
   129  C   4.0    0.16    3.46    3.10   397.03084   114.60005   227.53573
   130  O   6.0   -0.30    1.22    1.80   397.22601   115.07196   229.79766
   131  C   4.0   -0.03    4.31    4.21   397.46508   109.88733   227.75852
   132  C   4.0    0.16    3.25    3.04   400.29477   110.30230   227.40008
   133  O   6.0   -0.30    1.31    1.80   401.12483   112.14008   226.24828
   134  N   5.0   -0.19    3.19    1.95   401.74137   108.55379   228.48304
   135  H   1.0    0.12    1.09    1.44   397.09468   111.63149   222.82787
   136  H   1.0    0.06    1.08    1.44   393.99604   111.99261   227.47052
   137  H   1.0    0.04    1.03    1.43   397.11324   109.78150   229.78654
   138  H   1.0    0.04    1.03    1.43   396.91860   108.10790   226.87485
   139  H   1.0    0.13    1.08    1.44   403.67434   108.75111   228.57089
   140  H   1.0    0.07    1.03    1.43   400.95019   107.12598   229.45366
   141  N   5.0   -0.13    3.41    2.03   397.53671   116.23787   225.69522
   142  C   4.0    0.03    4.24    4.08   398.32225   118.80671   226.06596
   143  C   4.0    0.16    3.33    3.06   401.07224   119.32362   226.72358
   144  O   6.0   -0.30    1.31    1.80   401.71128   121.48654   227.31616
   145  H   1.0    0.12    1.12    1.45   397.58452   115.58163   223.89537
   146  H   1.0    0.06    1.03    1.43   397.95728   119.81864   224.30334
   147  H   1.0    0.07    1.03    1.43   397.17456   119.68008   227.55299
   148  N   5.0   -0.13    3.47    2.06   402.73730   117.44563   226.57454
   149  C   4.0    0.04    4.33    4.25   405.39549   117.91378   227.06072
   150  C   4.0    0.09    3.25    3.04   406.45302   119.78680   225.12508
   151  O   6.0   -0.31    1.19    1.80   405.60281   119.93934   222.97338
   152  C   4.0   -0.04    4.30    4.19   406.94278   115.48968   226.86799
   153  C   4.0   -0.03    4.17    3.95   406.44973   113.65251   229.01975
   154  C   4.0    0.25    3.11    3.02   407.94836   111.16255   228.57422
   155  O   6.0   -0.31    1.24    1.80   406.86505   109.13629   229.13760
   156  O   6.0   -0.30    1.18    1.80   410.13058   111.34612   227.72476
   157  H   1.0    0.11    1.09    1.44   402.16530   115.65507   226.21270
   158  H   1.0    0.06    1.05    1.44   405.62528   118.73720   228.95182
   159  H   1.0    0.06    1.03    1.43   406.51667   114.55065   225.07572
   160  H   1.0    0.05    1.03    1.43   408.95226   115.96074   226.87213
   161  H   1.0    0.06    1.02    1.43   407.07464   114.46405   230.81728
   162  H   1.0    0.06    1.03    1.43   404.44608   113.20094   229.17260
   163  N   5.0   -0.20    3.26    1.97   390.16694   129.25565   222.93920
   164  C   4.0    0.03    4.29    4.17   390.41468   128.75691   220.25761
   165  C   4.0    0.06    3.21    3.04   388.13595   129.88512   218.86515
   166  O   6.0   -0.31    1.13    1.80   386.03941   129.95835   219.85982
   167  C   4.0   -0.02    4.25    4.11   390.63062   125.88752   219.78495
   168  C   4.0   -0.09    4.11    3.81   390.99572   125.25385   216.99320
   169  C   4.0   -0.07    4.13    3.86   392.84537   124.82084   221.30294
   170  H   1.0    0.11    1.04    1.44   389.15000   128.05530   224.03200
   171  H   1.0    0.03    1.05    1.44   392.12884   129.75001   219.65653
   172  H   1.0    0.04    1.05    1.44   388.87210   125.03461   220.45574
   173  H   1.0    0.04    1.00    1.43   391.08693   123.20908   216.83354
   174  H   1.0    0.03    1.00    1.43   389.44295   125.93419   215.83682
   175  H   1.0    0.04    1.00    1.43   392.76025   126.07054   216.34202
   176  H   1.0    0.04    1.00    1.43   392.98020   122.79209   221.02696
   177  H   1.0    0.04    1.00    1.43   394.61227   125.68619   220.71264
   178  H   1.0    0.05    1.00    1.43   392.62445   125.16274   223.31611
   179  H   1.0    0.07    1.07    1.44   382.87761   122.48718   227.57143
   180  H   1.0    0.04    1.04    1.44   395.74550   125.57038   230.95274
   181  H   1.0    0.09    1.07    1.44   400.32107   122.77211   232.91502
   182  H   1.0    0.05    1.05    1.44   407.26579   124.62506   234.13107
   183  H   1.0    0.08    1.09    1.44   404.40321   134.00996   210.27839
   184  H   1.0    0.03    1.05    1.44   408.96602   138.86331   213.96786
   185  H   1.0    0.08    1.09    1.44   406.60309   124.41470   215.74891
   186  H   1.0    0.06    1.05    1.44   407.87883   120.93243   225.60012
   187  H   1.0    0.09    1.07    1.44   391.70807   129.27188   223.65840
   188  H   1.0    0.03    1.04    1.43   388.34338   130.57651   217.11872

  Z AO/shell   Hii/eV     exponent
  1     Wed Apr 25 08:07:45 CEST 2018   EN: 2.200 GM2: 0.406  GM3: 0.0800  RAES: 1.40
     1s    -10.707211    1.230000
  6     Wed Apr 25 08:07:45 CEST 2018   EN: 2.550 GM2: 0.538  GM3: 0.1500  RAES: 3.00
     2s    -13.970922    2.096432
     2p    -10.063292    1.800000
  7     Wed Apr 25 08:07:45 CEST 2018   EN: 3.040 GM2: 0.461  GM3:-0.0640  RAES: 1.90
     2s    -16.686243    2.339881
     2p    -12.523956    2.014332
  8     Wed Apr 25 08:07:45 CEST 2018   EN: 3.440 GM2: 0.452  GM3:-0.0517  RAES: 1.80
     2s    -20.229985    2.439742
     2p    -15.503117    2.137023
 no old-style atom pair restraining (fixing) potential

molecular fragmentation (1/2 indicates fragments):
111111111111111111111111111112222222222222222222222222222222222222222222
222222222222222222222222222222222222222222222222222222222222222222222222
22222222222222222222222222222222221122222222
# atoms in fragment 1/2:    31   157
 fragment masses (1/2) :      186.25     1127.21
CMA distance (Bohr)    :  12.825
constraining FC (au)   :  0.0500
           ------------------------------------------------- 
          |        Self-Consistent Charge Iterations        |
           ------------------------------------------------- 

 Ncao       : 464
 Nao        : 464
 Nshell     : 280
 Nel        : 522
 T(el)      :   500.0
 intcut     :    35.0
 scfconv/Eh :  0.100E-06
   qconv/e  :  0.100E-04
 intneglect :  0.100E-08
 broydamp   :      0.400
 iter      E             dE          RMSdq      gap      omega  full diag
   1   -300.6499966 -0.300650E+03  0.487E+00    2.91       0.0  T
   2   -301.4923466 -0.842350E+00  0.225E+00    1.81       1.0  T
   3   -301.5498828 -0.575363E-01  0.132E+00    1.82       1.0  T
   4   -301.6015891 -0.517062E-01  0.277E-01    1.28       1.0  T
   5   -301.6047167 -0.312767E-02  0.143E-01    1.40       1.0  T
   6   -301.6052403 -0.523537E-03  0.644E-02    1.34       1.0  T
   7   -301.6054276 -0.187362E-03  0.272E-02    1.29       1.0  T
   8   -301.6054545 -0.268567E-04  0.132E-02    1.27       1.0  T
   9   -301.6054619 -0.741285E-05  0.578E-03    1.25       1.3  T
  10   -301.6054631 -0.118675E-05  0.221E-03    1.25       3.3  T
  11   -301.6054633 -0.240442E-06  0.927E-04    1.25       7.9  T
  12   -301.6054633 -0.240291E-07  0.395E-04    1.25      18.5  T
  13   -301.6054634 -0.950303E-08  0.187E-04    1.25      39.0  T
  14   -301.6054634 -0.135435E-08  0.767E-05    1.25      95.1  T
  15   -301.6054634 -0.296097E-09  0.296E-05    1.25     246.4  T
speedup 15.92
cpu  time for SCC    9.22 s
wall time for SCC    0.58 s

   *** convergence criteria satisfied after 15 iterations ***

          eigenvalues
 #    :         249        250        251        252        253        254        255        256
 occ. :        2.000      2.000      2.000      2.000      2.000      2.000      2.000      2.000
 eps  :       -10.790    -10.765    -10.645    -10.601    -10.466    -10.327    -10.312    -10.102
 #    :         257        258        259        260        261        262        263        264
 occ. :        2.000      2.000      2.000      2.000      2.000      0.000      0.000      0.000
 eps  :        -9.982     -9.832     -9.830     -9.792     -9.537     -8.291     -7.921     -7.728
 #    :         265        266        267        268        269        270        271        272
 occ. :        0.000      0.000      0.000      0.000      0.000      0.000      0.000      0.000
 eps  :        -7.696     -7.499     -6.400     -6.308     -6.268     -6.224     -6.117     -6.020


   #   Z            q   n(s)   n(p)   n(d)      C6AA      α(0)
   1   7 N     -0.387  1.319  4.068  0.000    30.010     8.136
   2   6 C      0.032  1.063  2.905  0.000    20.048     6.377
   3   6 C      0.272  1.049  2.679  0.000    22.396     7.749
   4   8 O     -0.477  1.740  4.737  0.000    23.271     6.468
   5   6 C     -0.016  1.066  2.950  0.000    20.816     6.489
   6   6 C     -0.059  1.050  3.009  0.000    21.638     6.622
   7   6 C     -0.105  1.036  3.069  0.000    22.561     6.772
   8   6 C     -0.111  1.038  3.073  0.000    22.674     6.790
   9   1 H      0.167  0.833  0.000  0.000     1.292     1.780
  10   1 H      0.019  0.981  0.000  0.000     2.743     2.590
  11   1 H      0.043  0.957  0.000  0.000     2.408     2.427
  12   1 H      0.026  0.974  0.000  0.000     2.640     2.541
  13   1 H      0.040  0.960  0.000  0.000     2.452     2.449
  14   1 H      0.041  0.959  0.000  0.000     2.433     2.439
  15   1 H      0.031  0.969  0.000  0.000     2.567     2.505
  16   1 H      0.016  0.984  0.000  0.000     2.790     2.612
  17   1 H      0.042  0.958  0.000  0.000     2.429     2.437
  18   1 H      0.044  0.956  0.000  0.000     2.397     2.421
  19   1 H      0.045  0.955  0.000  0.000     2.387     2.416
  20   7 N     -0.167  1.237  3.931  0.000    24.614     7.369
  21   6 C      0.028  1.058  2.914  0.000    20.121     6.389
  22   6 C      0.199  1.087  2.714  0.000    23.762     7.983
  23   8 O     -0.375  1.760  4.615  0.000    21.189     6.172
  24   6 C     -0.135  1.043  3.091  0.000    23.146     6.860
  25   1 H      0.194  0.806  0.000  0.000     1.137     1.671
  26   1 H      0.114  0.886  0.000  0.000     1.664     2.017
  27   1 H      0.080  0.920  0.000  0.000     1.977     2.199
  28   1 H      0.093  0.907  0.000  0.000     1.848     2.126
  29   1 H      0.054  0.946  0.000  0.000     2.274     2.358
  30   7 N     -0.390  1.314  4.076  0.000    30.106     8.149
  31   6 C      0.056  1.051  2.893  0.000    19.659     6.315
  32   6 C      0.220  1.089  2.691  0.000    23.366     7.917
  33   8 O     -0.392  1.753  4.640  0.000    21.530     6.221
  34   6 C     -0.084  1.065  3.019  0.000    22.107     6.694
  35   6 C      0.369  1.027  2.604  0.000    20.745     7.454
  36   8 O     -0.646  1.768  4.878  0.000    27.272     7.002
  37   8 O     -0.645  1.775  4.870  0.000    27.253     6.999
  38   1 H      0.172  0.828  0.000  0.000     1.259     1.758
  39   1 H      0.055  0.945  0.000  0.000     2.263     2.353
  40   1 H      0.022  0.978  0.000  0.000     2.700     2.569
  41   1 H     -0.001  1.001  0.000  0.000     3.073     2.741
  42   7 N     -0.382  1.318  4.064  0.000    29.885     8.119
  43   6 C      0.041  1.056  2.903  0.000    19.910     6.356
  44   6 C      0.200  1.086  2.714  0.000    23.741     7.980
  45   8 O     -0.380  1.760  4.619  0.000    21.277     6.184
  46   6 C     -0.067  1.054  3.013  0.000    21.777     6.642
  47   6 C      0.003  1.078  2.920  0.000    27.965     8.674
  48   6 C     -0.044  1.082  2.962  0.000    29.105     8.847
  49   6 C     -0.039  1.085  2.954  0.000    28.959     8.825
  50   6 C     -0.067  1.075  2.992  0.000    29.658     8.930
  51   6 C     -0.071  1.079  2.993  0.000    29.771     8.947
  52   6 C      0.134  1.046  2.820  0.000    25.070     8.206
  53   8 O     -0.405  1.685  4.721  0.000    20.952     6.179
  54   1 H      0.162  0.838  0.000  0.000     1.322     1.801
  55   1 H      0.064  0.936  0.000  0.000     2.149     2.292
  56   1 H      0.046  0.954  0.000  0.000     2.372     2.408
  57   1 H      0.039  0.961  0.000  0.000     2.459     2.452
  58   1 H      0.051  0.949  0.000  0.000     2.303     2.373
  59   1 H      0.037  0.963  0.000  0.000     2.491     2.468
  60   1 H      0.077  0.923  0.000  0.000     2.011     2.218
  61   1 H      0.042  0.958  0.000  0.000     2.425     2.435
  62   1 H      0.327  0.673  0.000  0.000     0.644     1.261
  63   7 N     -0.403  1.330  4.072  0.000    30.444     8.195
  64   6 C      0.023  1.062  2.915  0.000    20.194     6.400
  65   6 C      0.273  1.048  2.679  0.000    22.389     7.748
  66   8 O     -0.471  1.724  4.747  0.000    23.151     6.451
  67   6 C     -0.021  1.067  2.954  0.000    20.909     6.504
  68   6 C     -0.104  1.035  3.069  0.000    22.539     6.769
  69   6 C     -0.111  1.039  3.072  0.000    22.683     6.790
  70   1 H      0.175  0.825  0.000  0.000     1.241     1.745
  71   1 H      0.036  0.964  0.000  0.000     2.498     2.472
  72   1 H      0.060  0.940  0.000  0.000     2.200     2.319
  73   1 H      0.055  0.945  0.000  0.000     2.254     2.348
  74   1 H      0.019  0.981  0.000  0.000     2.754     2.595
  75   1 H      0.011  0.989  0.000  0.000     2.867     2.648
  76   1 H      0.056  0.944  0.000  0.000     2.248     2.345
  77   1 H      0.026  0.974  0.000  0.000     2.647     2.544
  78   1 H      0.049  0.951  0.000  0.000     2.331     2.388
  79   7 N     -0.206  1.268  3.938  0.000    25.482     7.497
  80   6 C      0.047  1.055  2.898  0.000    19.799     6.336
  81   6 C      0.289  1.044  2.667  0.000    22.110     7.700
  82   8 O     -0.513  1.743  4.770  0.000    24.080     6.579
  83   6 C     -0.083  1.059  3.024  0.000    22.089     6.691
  84   6 C      0.377  1.023  2.600  0.000    20.608     7.429
  85   8 O     -0.617  1.774  4.843  0.000    26.549     6.908
  86   8 O     -0.618  1.746  4.872  0.000    26.575     6.912
  87   1 H      0.204  0.796  0.000  0.000     1.088     1.634
  88   1 H      0.048  0.952  0.000  0.000     2.350     2.397
  89   1 H      0.014  0.986  0.000  0.000     2.821     2.627
  90   1 H      0.026  0.974  0.000  0.000     2.639     2.540
  91   7 N     -0.184  1.250  3.933  0.000    24.981     7.423
  92   6 C      0.021  1.063  2.915  0.000    20.225     6.404
  93   6 C      0.273  1.043  2.683  0.000    22.379     7.746
  94   8 O     -0.484  1.738  4.746  0.000    23.428     6.490
  95   6 C     -0.077  1.057  3.020  0.000    21.960     6.671
  96   6 C     -0.089  1.056  3.032  0.000    22.192     6.707
  97   6 C     -0.092  1.050  3.042  0.000    22.248     6.715
  98   6 C     -0.048  1.060  2.988  0.000    21.531     6.624
  99   7 N     -0.144  1.228  3.916  0.000    24.106     7.292
 100   1 H      0.212  0.788  0.000  0.000     1.048     1.603
 101   1 H      0.084  0.916  0.000  0.000     1.938     2.177
 102   1 H      0.066  0.934  0.000  0.000     2.136     2.285
 103   1 H      0.069  0.931  0.000  0.000     2.097     2.265
 104   1 H      0.092  0.908  0.000  0.000     1.859     2.132
 105   1 H      0.068  0.932  0.000  0.000     2.112     2.272
 106   1 H      0.058  0.942  0.000  0.000     2.218     2.329
 107   1 H      0.081  0.919  0.000  0.000     1.966     2.193
 108   1 H      0.112  0.888  0.000  0.000     1.678     2.026
 109   1 H      0.127  0.873  0.000  0.000     1.556     1.951
 110   1 H      0.306  0.694  0.000  0.000     0.697     1.307
 111   1 H      0.285  0.715  0.000  0.000     0.761     1.366
 112   1 H      0.286  0.714  0.000  0.000     0.757     1.363
 113   7 N     -0.185  1.248  3.936  0.000    24.999     7.426
 114   6 C      0.022  1.061  2.916  0.000    20.204     6.400
 115   6 C      0.273  1.047  2.680  0.000    22.392     7.749
 116   8 O     -0.473  1.738  4.735  0.000    23.203     6.458
 117   6 C      0.115  1.047  2.838  0.000    18.787     6.188
 118   8 O     -0.475  1.719  4.756  0.000    22.368     6.385
 119   6 C     -0.134  1.045  3.090  0.000    23.146     6.861
 120   1 H      0.212  0.788  0.000  0.000     1.048     1.604
 121   1 H      0.093  0.907  0.000  0.000     1.848     2.126
 122   1 H      0.013  0.987  0.000  0.000     2.844     2.637
 123   1 H      0.347  0.653  0.000  0.000     0.596     1.212
 124   1 H      0.065  0.935  0.000  0.000     2.144     2.290
 125   1 H      0.036  0.964  0.000  0.000     2.498     2.471
 126   1 H      0.078  0.922  0.000  0.000     2.004     2.214
 127   7 N     -0.197  1.252  3.945  0.000    25.282     7.468
 128   6 C      0.031  1.054  2.915  0.000    20.054     6.376
 129   6 C      0.282  1.040  2.678  0.000    22.224     7.720
 130   8 O     -0.520  1.749  4.771  0.000    24.235     6.600
 131   6 C     -0.101  1.064  3.038  0.000    22.424     6.740
 132   6 C      0.296  1.036  2.668  0.000    21.981     7.677
 133   8 O     -0.530  1.752  4.779  0.000    24.470     6.632
 134   7 N     -0.303  1.286  4.017  0.000    27.801     7.831
 135   1 H      0.207  0.793  0.000  0.000     1.073     1.622
 136   1 H      0.094  0.906  0.000  0.000     1.841     2.122
 137   1 H      0.087  0.913  0.000  0.000     1.913     2.163
 138   1 H      0.079  0.921  0.000  0.000     1.986     2.204
 139   1 H      0.234  0.766  0.000  0.000     0.950     1.527
 140   1 H      0.233  0.767  0.000  0.000     0.954     1.530
 141   7 N     -0.176  1.239  3.937  0.000    24.806     7.397
 142   6 C     -0.019  1.045  2.974  0.000    20.987     6.536
 143   6 C      0.280  1.040  2.679  0.000    22.253     7.725
 144   8 O     -0.497  1.741  4.756  0.000    23.721     6.530
 145   1 H      0.226  0.774  0.000  0.000     0.982     1.552
 146   1 H      0.108  0.892  0.000  0.000     1.713     2.047
 147   1 H      0.101  0.899  0.000  0.000     1.773     2.082
 148   7 N     -0.172  1.241  3.931  0.000    24.727     7.385
 149   6 C      0.048  1.053  2.899  0.000    19.767     6.331
 150   6 C      0.207  1.091  2.703  0.000    23.611     7.958
 151   8 O     -0.355  1.729  4.626  0.000    20.804     6.115
 152   6 C     -0.034  1.047  2.988  0.000    21.180     6.551
 153   6 C     -0.081  1.061  3.020  0.000    22.054     6.687
 154   6 C      0.373  1.025  2.601  0.000    20.677     7.441
 155   8 O     -0.618  1.759  4.859  0.000    26.559     6.909
 156   8 O     -0.620  1.765  4.855  0.000    26.614     6.917
 157   1 H      0.208  0.792  0.000  0.000     1.066     1.617
 158   1 H      0.065  0.935  0.000  0.000     2.143     2.289
 159   1 H      0.035  0.965  0.000  0.000     2.515     2.480
 160   1 H      0.051  0.949  0.000  0.000     2.308     2.376
 161   1 H      0.018  0.982  0.000  0.000     2.758     2.597
 162   1 H      0.020  0.980  0.000  0.000     2.732     2.585
 163   7 N     -0.387  1.308  4.079  0.000    30.000     8.135
 164   6 C      0.037  1.063  2.901  0.000    19.976     6.366
 165   6 C      0.196  1.089  2.715  0.000    23.823     7.993
 166   8 O     -0.375  1.767  4.608  0.000    21.179     6.170
 167   6 C     -0.012  1.063  2.949  0.000    20.761     6.481
 168   6 C     -0.142  1.046  3.096  0.000    23.298     6.882
 169   6 C     -0.102  1.036  3.067  0.000    22.507     6.764
 170   1 H      0.165  0.835  0.000  0.000     1.304     1.789
 171   1 H      0.051  0.949  0.000  0.000     2.310     2.377
 172   1 H      0.029  0.971  0.000  0.000     2.599     2.521
 173   1 H      0.056  0.944  0.000  0.000     2.246     2.344
 174   1 H      0.058  0.942  0.000  0.000     2.222     2.331
 175   1 H      0.072  0.928  0.000  0.000     2.064     2.247
 176   1 H      0.035  0.965  0.000  0.000     2.517     2.481
 177   1 H      0.041  0.959  0.000  0.000     2.438     2.442
 178   1 H      0.022  0.978  0.000  0.000     2.704     2.572
 179   1 H      0.184  0.816  0.000  0.000     1.191     1.709
 180   1 H      0.077  0.923  0.000  0.000     2.010     2.217
 181   1 H      0.181  0.819  0.000  0.000     1.209     1.722
 182   1 H      0.070  0.930  0.000  0.000     2.089     2.260
 183   1 H      0.194  0.806  0.000  0.000     1.135     1.669
 184   1 H      0.064  0.936  0.000  0.000     2.153     2.294
 185   1 H      0.191  0.809  0.000  0.000     1.154     1.682
 186   1 H      0.084  0.916  0.000  0.000     1.939     2.177
 187   1 H      0.169  0.831  0.000  0.000     1.278     1.771
 188   1 H      0.083  0.917  0.000  0.000     1.944     2.180

 Mol. C6AA /au·bohr⁶  :     331409.745157
 Mol. C8AA /au·bohr⁸  :    7314248.624460
 Mol. α(0) /au        :        859.705710

 
molecular dipole:
                 x           y           z       tot (Debye)
 q only:     -818.775    -220.469    -472.599
   full:     -817.565    -222.240    -470.854    2463.719
molecular quadrupole (traceless):
                xx          xy          yy          xz          yz          zz
 q only:  -267406.042 -135554.851  199066.497 -289945.364  -78535.868   68339.545
  q+dip:  -266619.629 -136387.172  197783.540 -288495.544  -78808.253   68836.089
   full:  -266622.287 -136388.898  197784.122 -288494.957  -78811.342   68838.164
speedup 15.93
cpu  time for grad   10.00 s
wall time for grad    0.63 s

SCC energy    :    -301.6117836
rep           :       3.5612358
ES            :       1.4262663
AES           :      -0.0765628
AXC           :       0.0863733
disp          :      -0.2285247
XB            :       0.0000000
fix           :       0.0000000
Gborn         :       0.0000000
Gsasa         :       0.0000000
Ghb           :       0.0000000
Gshift        :       0.0000000
Gsolv         :      -0.5421246     -340.19
Etot ala COSMO:    -301.6117836
grad norm     :       0.4988948
total E       :    -298.0337242
atomizationE  :      53.2441306    33411.20
(atE without considering molecular charge,
 total energy contains solvation terms)
H-L gap (eV)  :          1.2461

------------------------------------------------------------------------
 * finished run on 2019/02/13 at 00:18:51.566     
------------------------------------------------------------------------
 total:
 * wall-time:     0 d,  0 h,  0 min,  0.744 sec
 *  cpu-time:     0 d,  0 h,  0 min, 11.660 sec
 * ratio c/w:    15.675 speedup
 SCF:
 * wall-time:     0 d,  0 h,  0 min,  0.671 sec
 *  cpu-time:     0 d,  0 h,  0 min, 10.698 sec
 * ratio c/w:    15.931 speedup

